 Gaussian 09, Revision D.01,
 Gaussian 09:  EM64M-G09RevD.01 24-Apr-2013

 -------------------------------------------------
 # B3LYP/6-311G(d,p) Geom=Check Guess=Read Pop=NPA
 -------------------------------------------------

 -------
 Methane
 -------
 Structure from the checkpoint file:  "methane_nbo.chk"
 Charge =  0 Multiplicity = 1

                         Standard orientation:
 ---------------------------------------------------------------------
 Center     Atomic      Atomic             Coordinates (Angstroms)
 Number     Number       Type             X           Y           Z
 ---------------------------------------------------------------------
      1          6           0        0.000000    0.000000    0.000000
      2          1           0        0.629748    0.629748    0.629748
      3          1           0       -0.629748   -0.629748    0.629748
      4          1           0       -0.629748    0.629748   -0.629748
      5          1           0        0.629748   -0.629748   -0.629748
 ---------------------------------------------------------------------

 SCF Done:  E(RB3LYP) =  -40.5337484279     A.U. after    1 cycles

 The electronic state is 1-A1.
 Alpha  occ. eigenvalues --  -10.15225  -0.69614  -0.39492  -0.39492  -0.39492
 Alpha virt. eigenvalues --    0.05349   0.12415   0.12415   0.12415   0.27888
 Alpha virt. eigenvalues --    0.27888   0.27888   0.54232   0.59121   0.59121
 Alpha virt. eigenvalues --    0.59121   0.74272   0.96482   0.96482   1.45478

 Mulliken charges:
               1
     1  C   -0.437226
     2  H    0.109307
     3  H    0.109307
     4  H    0.109307
     5  H    0.109307
 Sum of Mulliken charges =   0.00000

 Dipole moment (field-independent basis, Debye):
    X=              0.0000    Y=              0.0000    Z=              0.0000  Tot=              0.0000
 Quadrupole moment (field-independent basis, Debye-Ang):
   XX=             -8.4621   YY=             -8.4621   ZZ=             -8.4621
   XY=              0.0000   XZ=              0.0000   YZ=              0.0000

 Summary of Natural Population Analysis:

                                       Natural Population
                Natural  -----------------------------------------------
    Atom  No    Charge         Core      Valence    Rydberg      Total
 -----------------------------------------------------------------------
      C    1   -0.79151      1.99940     4.78920    0.00291     6.79151
      H    2    0.19788      0.00000     0.80099    0.00114     0.80212
      H    3    0.19788      0.00000     0.80099    0.00114     0.80212
      H    4    0.19788      0.00000     0.80099    0.00114     0.80212
      H    5    0.19788      0.00000     0.80099    0.00114     0.80212
 =======================================================================
   * Total *    0.00000      1.99940     7.99315    0.00745    10.00000

 Normal termination of Gaussian 09 at Mon Mar 14 11:13:58 2016.
