 Gaussian 09, Revision D.01,
 Gaussian 09:  EM64M-G09RevD.01 24-Apr-2013

 ----------------------------
 # B3LYP/6-311G(d,p) Opt Freq
 ----------------------------

 -------
 Methane
 -------
 Symbolic Z-matrix:
 Charge =  0 Multiplicity = 1

 SCF Done:  E(RB3LYP) =  -40.5337109039     A.U. after   10 cycles
 SCF Done:  E(RB3LYP) =  -40.5337484279     A.U. after    6 cycles
 Optimization completed.
    -- Stationary point found.

 1\1\GINC-CH-NETTLE\FOpt\RB3LYP\6-311G(d,p)\C1H4\JS4811\11-Mar-2016\0\\
 # B3LYP/6-311G(d,p) Opt Freq\\Methane\\0,1\C,0.,0.,0.\H,0.,0.,1.090754
 9973\H,1.0283736736,0.,-0.3635849991\H,-0.5141868368,-0.890597726,-0.3
 635849991\H,-0.5141868368,0.890597726,-0.3635849991\\Version=EM64M-G09
 RevD.01\State=1-A1\HF=-40.5337484\RMSD=1.016e-09\RMSF=4.368e-06\Dipole
 =0.,0.,0.\Quadrupole=0.,0.,0.,0.,0.,0.\PG=TD [O(C1),4C3(H1)]\\@

 Normal termination of Gaussian 09 at Fri Mar 11 11:55:37 2016.

 ----------------------------------------------------------------------
 #N Geom=AllCheck Guess=TCheck SCRF=Check GenChk RB3LYP/6-311G(d,p) Fre
 q
 ----------------------------------------------------------------------

 Structure from the checkpoint file:  "methane.chk"
 -------
 Methane
 -------
 Charge =  0 Multiplicity = 1

                         Standard orientation:
 ---------------------------------------------------------------------
 Center     Atomic      Atomic             Coordinates (Angstroms)
 Number     Number       Type             X           Y           Z
 ---------------------------------------------------------------------
      1          6           0        0.000000    0.000000    0.000000
      2          1           0        0.629748    0.629748    0.629748
      3          1           0       -0.629748   -0.629748    0.629748
      4          1           0       -0.629748    0.629748   -0.629748
      5          1           0        0.629748   -0.629748   -0.629748
 ---------------------------------------------------------------------

 SCF Done:  E(RB3LYP) =  -40.5337484279     A.U. after    1 cycles

 The electronic state is 1-A1.
 Alpha  occ. eigenvalues --  -10.15225  -0.69614  -0.39492  -0.39492  -0.39492
 Alpha virt. eigenvalues --    0.05349   0.12415   0.12415   0.12415   0.27888
 Alpha virt. eigenvalues --    0.27888   0.27888   0.54232   0.59121   0.59121
 Alpha virt. eigenvalues --    0.59121   0.74272   0.96482   0.96482   1.45478

 Mulliken charges:
               1
     1  C   -0.437226
     2  H    0.109307
     3  H    0.109307
     4  H    0.109307
     5  H    0.109307
 Sum of Mulliken charges =   0.00000

 Dipole moment (field-independent basis, Debye):
    X=              0.0000    Y=              0.0000    Z=              0.0000  Tot=              0.0000
 Quadrupole moment (field-independent basis, Debye-Ang):
   XX=             -8.4621   YY=             -8.4621   ZZ=             -8.4621
   XY=              0.0000   XZ=              0.0000   YZ=              0.0000

  Exact polarizability:  13.787   0.000  13.787   0.000   0.000  13.787
 Approx polarizability:  16.756   0.000  16.756   0.000   0.000  16.756

                      1                      2                      3
                     T2                     T2                     T2
 Frequencies --   1341.7771              1341.7771              1341.7771
 Red. masses --      1.1798                 1.1798                 1.1798
 Frc consts  --      1.2514                 1.2514                 1.2514
 IR Inten    --     16.9212                16.9212                16.9212

                      4                      5                      6
                      E                      E                     A1
 Frequencies --   1561.2621              1561.2621              3026.1616
 Red. masses --      1.0078                 1.0078                 1.0078
 Frc consts  --      1.4474                 1.4474                 5.4378
 IR Inten    --      0.0000                 0.0000                 0.0000

                      7                      8                      9
                     T2                     T2                     T2
 Frequencies --   3132.3359              3132.3359              3132.3359
 Red. masses --      1.1010                 1.1010                 1.1010
 Frc consts  --      6.3645                 6.3645                 6.3645
 IR Inten    --     27.9584                27.9584                27.9584

 - Thermochemistry -
 -------------------
 Temperature   298.150 Kelvin.  Pressure   1.00000 Atm.
 Atom     1 has atomic number  6 and mass  12.00000

 Molecular mass:    16.03130 amu.
 Principal axes and moments of inertia in atomic units:
                           1         2         3
     Eigenvalues --    11.41842  11.41842  11.41842
           X           -0.24709   0.27688   0.92859
           Y            0.96200   0.18498   0.20083
           Z           -0.11617   0.94293  -0.31207
 This molecule is a spherical top.
 Rotational symmetry number 12.
 Rotational temperatures (Kelvin)      7.58545     7.58545     7.58545
 Rotational constants (GHZ):         158.05524   158.05524   158.05524
 Zero-point vibrational energy     117060.7 (Joules/Mol)
                                   27.97818 (Kcal/Mol)
 Vibrational temperatures:   1930.52  1930.52  1930.52  2246.31  2246.31
          (Kelvin)           4353.97  4506.73  4506.73  4506.73

 Zero-point correction=                           0.044586 (Hartree/Particle)
 Thermal correction to Energy=                    0.047455
 Thermal correction to Enthalpy=                  0.048399
 Thermal correction to Gibbs Free Energy=         0.027269
 Sum of electronic and zero-point Energies=            -40.489162
 Sum of electronic and thermal Energies=               -40.486294
 Sum of electronic and thermal Enthalpies=             -40.485350
 Sum of electronic and thermal Free Energies=          -40.506480

                     E (Thermal)             CV                S
                      KCal/Mol        Cal/Mol-Kelvin    Cal/Mol-Kelvin
 Total                   29.778              6.469             44.472
 Electronic               0.000              0.000              0.000
 Translational            0.889              2.981             34.261
 Rotational               0.889              2.981             10.124
 Vibrational             28.001              0.508              0.087

 Optimization completed.
    -- Stationary point found.

 1\1\GINC-CH-NETTLE\Freq\RB3LYP\6-311G(d,p)\C1H4\JS4811\11-Mar-2016\0\\
 #N Geom=AllCheck Guess=TCheck SCRF=Check GenChk RB3LYP/6-311G(d,p) Fre
 q\\Methane\\0,1\C,0.,0.,0.\H,0.,0.,1.0907549973\H,1.0283736736,0.,-0.3
 635849991\H,-0.5141868368,-0.890597726,-0.3635849991\H,-0.5141868368,0
 .890597726,-0.3635849991\\Version=EM64M-G09RevD.01\State=1-A1\HF=-40.5
 337484\RMSD=5.169e-19\RMSF=4.368e-06\ZeroPoint=0.0445861\Thermal=0.047
 4546\Dipole=0.,0.,0.\DipoleDeriv=-0.0037448,0.,0.,0.,-0.0037448,0.,0.,
 0.,-0.0037448,0.077087,0.,0.,0.,0.077087,0.,0.,0.,-0.1513655,-0.125981

 Normal termination of Gaussian 09 at Fri Mar 11 11:55:42 2016.
