 Gaussian 09, Revision D.01,
 Gaussian 09:  ES64L-G09RevD.01 24-Apr-2013

 ----------------------------
 # B3LYP/6-311G(d,p) Opt Freq
 ----------------------------

 -----
 Title
 -----
 Symbolic Z-matrix:
 Charge =  1 Multiplicity = 1

 SCF Done:  E(RB3LYP) =  -174.898969255     A.U. after   12 cycles
 SCF Done:  E(RB3LYP) =  -174.900726665     A.U. after   10 cycles
 SCF Done:  E(RB3LYP) =  -174.900808878     A.U. after    8 cycles
 SCF Done:  E(RB3LYP) =  -174.900800019     A.U. after    7 cycles
 SCF Done:  E(RB3LYP) =  -174.900803316     A.U. after    6 cycles
 SCF Done:  E(RB3LYP) =  -174.900793213     A.U. after    6 cycles
 SCF Done:  E(RB3LYP) =  -174.900803791     A.U. after    5 cycles
 Optimization completed.
    -- Stationary point found.
 Normal termination of Gaussian 09 at Thu Mar 10 22:36:16 2016.

 ----------------------------------------------------------------------
 #N Geom=AllCheck Guess=TCheck SCRF=Check GenChk RB3LYP/6-311G(d,p) Fre
 q
 ----------------------------------------------------------------------

 Structure from the checkpoint file:  "/work/js4811/cations/NMe3H_plus/NMe3H_plus.chk"
 -----
 Title
 -----
 Charge =  1 Multiplicity = 1

                         Standard orientation:
 ---------------------------------------------------------------------
 Center     Atomic      Atomic             Coordinates (Angstroms)
 Number     Number       Type             X           Y           Z
 ---------------------------------------------------------------------
      1          6           0       -0.729859    1.241210   -0.103109
      2          1           0       -1.746718    1.208803    0.284044
      3          1           0       -0.207409    2.114236    0.283948
      4          1           0       -0.743233    1.263760   -1.191647
      5          6           0        1.439947    0.011390   -0.103151
      6          1           0        1.920706    0.907684    0.284756
      7          1           0        1.934416   -0.878021    0.283364
      8          1           0        1.466352    0.012480   -1.191692
      9          6           0       -0.710132   -1.252609   -0.103140
     10          1           0       -0.724370   -1.274654   -1.191685
     11          1           0       -0.173180   -2.117251    0.282868
     12          1           0       -1.726933   -1.236835    0.285222
     13          7           0        0.000083   -0.000017    0.338027
     14          1           0        0.000045   -0.000026    1.361030
 ---------------------------------------------------------------------

 SCF Done:  E(RB3LYP) =  -174.900803791     A.U. after    1 cycles

 The electronic state is 1-A.
 Alpha  occ. eigenvalues --  -14.63363 -10.40718 -10.40718 -10.40717  -1.20549
 Alpha  occ. eigenvalues --   -0.93608  -0.93605  -0.86556  -0.75576  -0.69826
 Alpha  occ. eigenvalues --   -0.69824  -0.61931  -0.61927  -0.59599  -0.59424
 Alpha  occ. eigenvalues --   -0.59423  -0.59208
 Alpha virt. eigenvalues --   -0.17065  -0.11402  -0.10158  -0.09157  -0.09156
 Alpha virt. eigenvalues --   -0.08103  -0.08102  -0.06545  -0.02691  -0.02690
 Alpha virt. eigenvalues --   -0.01737  -0.01733  -0.00191   0.06950   0.06954

 Mulliken charges:
               1
     1  C   -0.191067
     2  H    0.178721
     3  H    0.178746
     4  H    0.180300
     5  C   -0.191137
     6  H    0.178758
     7  H    0.178739
     8  H    0.180313
     9  C   -0.191034
    10  H    0.180302
    11  H    0.178723
    12  H    0.178719
    13  N   -0.332950
    14  H    0.292865
 Sum of Mulliken charges =   1.00000

 Dipole moment (field-independent basis, Debye):
    X=              0.0000    Y=              0.0001    Z=              0.8683  Tot=              0.8683
 Quadrupole moment (field-independent basis, Debye-Ang):
   XX=            -19.4441   YY=            -19.4460   ZZ=            -21.8839
   XY=             -0.0001   XZ=              0.0000   YZ=             -0.0002

  Exact polarizability:  41.622   0.000  41.619   0.000   0.000  35.625
 Approx polarizability:  52.870   0.000  52.870  -0.001   0.000  51.255

                      1                      2                      3
                      A                      A                      A
 Frequencies --    186.3530               253.4049               254.4568
 Red. masses --      1.0124                 1.0646                 1.0656
 Frc consts  --      0.0207                 0.0403                 0.0407
 IR Inten    --      0.0000                 0.0549                 0.0537

                      4                      5                      6
                      A                      A                      A
 Frequencies --    389.8900               391.2877               454.5130
 Red. masses --      2.2630                 2.2545                 2.1745
 Frc consts  --      0.2027                 0.2034                 0.2647
 IR Inten    --      0.3399                 0.3467                 0.0008

                      7                      8                      9
                      A                      A                      A
 Frequencies --    791.2081               959.1990               959.5406
 Red. masses --      3.3766                 2.9419                 2.9591
 Frc consts  --      1.2454                 1.5947                 1.6052
 IR Inten    --      1.7059                24.3860                24.2353

                     10                     11                     12
                      A                      A                      A
 Frequencies --   1053.7380              1054.8880              1075.6429
 Red. masses --      1.1479                 1.1460                 1.1949
 Frc consts  --      0.7509                 0.7514                 0.8146
 IR Inten    --      2.8763                 3.0347                 0.0003

                     13                     14                     15
                      A                      A                      A
 Frequencies --   1247.7902              1248.4591              1277.8592
 Red. masses --      1.6370                 1.6358                 1.6878
 Frc consts  --      1.5017                 1.5022                 1.6238
 IR Inten    --      0.0057                 0.0055                 0.1576

                     16                     17                     18
                      A                      A                      A
 Frequencies --   1429.0047              1429.2266              1449.6689
 Red. masses --      1.2067                 1.2067                 1.1586
 Frc consts  --      1.4519                 1.4523                 1.4345
 IR Inten    --      4.9002                 4.8933                 4.4125

                     19                     20                     21
                      A                      A                      A
 Frequencies --   1450.7236              1477.1232              1490.5635
 Red. masses --      1.1568                 1.0427                 1.1528
 Frc consts  --      1.4344                 1.3404                 1.5091
 IR Inten    --      4.2372                 0.0056                 6.4049

                     22                     23                     24
                      A                      A                      A
 Frequencies --   1491.8955              1492.4646              1509.3133
 Red. masses --      1.0417                 1.0288                 1.0584
 Frc consts  --      1.3661                 1.3502                 1.4205
 IR Inten    --      3.4587                 2.7079                37.6701

                     25                     26                     27
                      A                      A                      A
 Frequencies --   1509.5209              1518.4465              3071.3400
 Red. masses --      1.0578                 1.0464                 1.0301
 Frc consts  --      1.4201                 1.4215                 5.7250
 IR Inten    --     37.1004                52.1740                 0.2770

                     28                     29                     30
                      A                      A                      A
 Frequencies --   3071.4943              3076.2802              3166.7707
 Red. masses --      1.0301                 1.0315                 1.1087
 Frc consts  --      5.7256                 5.7511                 6.5508
 IR Inten    --      0.2795                 0.0601                 0.0048

                     31                     32                     33
                      A                      A                      A
 Frequencies --   3166.9357              3167.3485              3170.3516
 Red. masses --      1.1096                 1.1096                 1.1087
 Frc consts  --      6.5568                 6.5586                 6.5660
 IR Inten    --      0.0779                 0.0686                 0.3253

                     34                     35                     36
                      A                      A                      A
 Frequencies --   3171.1359              3171.3248              3439.5400
 Red. masses --      1.1092                 1.1092                 1.0771
 Frc consts  --      6.5718                 6.5724                 7.5076
 IR Inten    --      0.1900                 0.1915                56.3454

 - Thermochemistry -
 -------------------
 Temperature   298.150 Kelvin.  Pressure   1.00000 Atm.
 Atom     1 has atomic number  6 and mass  12.00000

 Molecular mass:    60.08132 amu.
 Principal axes and moments of inertia in atomic units:
                           1         2         3
     Eigenvalues --   224.39068 224.43436 387.20985
           X            0.99999  -0.00523   0.00000
           Y            0.00523   0.99999   0.00000
           Z            0.00000   0.00000   1.00000
 This molecule is an asymmetric top.
 Rotational symmetry number  1.
 Rotational temperatures (Kelvin)      0.38600     0.38592     0.22369
 Rotational constants (GHZ):           8.04285     8.04129     4.66089
 Zero-point vibrational energy     356000.9 (Joules/Mol)
                                   85.08626 (Kcal/Mol)
 Warning -- explicit consideration of   6 degrees of freedom as
           vibrations may cause significant error
 Vibrational temperatures:    268.12   364.59   366.11   560.96   562.97
          (Kelvin)            653.94  1138.37  1380.07  1380.56  1516.09
                             1517.75  1547.61  1795.29  1796.25  1838.55
                             2056.02  2056.34  2085.75  2087.27  2125.25
                             2144.59  2146.50  2147.32  2171.56  2171.86
                             2184.70  4418.97  4419.19  4426.08  4556.27
                             4556.51  4557.10  4561.42  4562.55  4562.82
                             4948.72

 Zero-point correction=                           0.135594 (Hartree/Particle)
 Thermal correction to Energy=                    0.141222
 Thermal correction to Enthalpy=                  0.142166
 Thermal correction to Gibbs Free Energy=         0.107945
 Sum of electronic and zero-point Energies=           -174.765210
 Sum of electronic and thermal Energies=              -174.759582
 Sum of electronic and thermal Enthalpies=            -174.758638
 Sum of electronic and thermal Free Energies=         -174.792859

                     E (Thermal)             CV                S
                      KCal/Mol        Cal/Mol-Kelvin    Cal/Mol-Kelvin
 Total                   88.618             19.530             72.025
 Electronic               0.000              0.000              0.000
 Translational            0.889              2.981             38.199
 Rotational               0.889              2.981             24.481
 Vibrational             86.841             13.568              9.344
 Vibration     1          0.632              1.859              2.264
 Vibration     2          0.665              1.757              1.707
 Vibration     3          0.665              1.755              1.700
 Vibration     4          0.758              1.492              1.001
 Vibration     5          0.759              1.489              0.995
 Vibration     6          0.813              1.351              0.782

 Normal termination of Gaussian 09 at Thu Mar 10 22:40:18 2016.
