 Gaussian 09, Revision D.01,
 Gaussian 09:  EM64M-G09RevD.01 24-Apr-2013

 ----------------------------------------------------
 # B3LYP/6-311G(d,p) Geom=Check Guess=Read Output=wfx
 ----------------------------------------------------

 -----
 Title
 -----
 Structure from the checkpoint file:  "NMe3H_plus_wfx.chk"
 Charge =  1 Multiplicity = 1

                         Standard orientation:
 ---------------------------------------------------------------------
 Center     Atomic      Atomic             Coordinates (Angstroms)
 Number     Number       Type             X           Y           Z
 ---------------------------------------------------------------------
      1          6           0       -0.729859    1.241210   -0.103109
      2          1           0       -1.746718    1.208803    0.284044
      3          1           0       -0.207409    2.114236    0.283948
      4          1           0       -0.743233    1.263760   -1.191647
      5          6           0        1.439947    0.011390   -0.103151
      6          1           0        1.920706    0.907684    0.284756
      7          1           0        1.934416   -0.878021    0.283364
      8          1           0        1.466352    0.012480   -1.191692
      9          6           0       -0.710132   -1.252609   -0.103140
     10          1           0       -0.724370   -1.274654   -1.191685
     11          1           0       -0.173180   -2.117251    0.282868
     12          1           0       -1.726933   -1.236835    0.285222
     13          7           0        0.000083   -0.000017    0.338027
     14          1           0        0.000045   -0.000026    1.361030
 ---------------------------------------------------------------------

 SCF Done:  E(RB3LYP) =  -174.900803791     A.U. after    1 cycles

 The electronic state is 1-A.
 Alpha  occ. eigenvalues --  -14.63362 -10.40718 -10.40718 -10.40717  -1.20549
 Alpha  occ. eigenvalues --   -0.93608  -0.93605  -0.86556  -0.75576  -0.69826
 Alpha  occ. eigenvalues --   -0.69824  -0.61931  -0.61927  -0.59599  -0.59424
 Alpha  occ. eigenvalues --   -0.59423  -0.59208
 Alpha virt. eigenvalues --   -0.17065  -0.11402  -0.10158  -0.09157  -0.09156
 Alpha virt. eigenvalues --   -0.08103  -0.08102  -0.06545  -0.02691  -0.02690
 Alpha virt. eigenvalues --   -0.01737  -0.01733  -0.00191   0.06950   0.06954

 Mulliken charges:
               1
     1  C   -0.191068
     2  H    0.178721
     3  H    0.178746
     4  H    0.180300
     5  C   -0.191138
     6  H    0.178758
     7  H    0.178739
     8  H    0.180313
     9  C   -0.191035
    10  H    0.180302
    11  H    0.178723
    12  H    0.178719
    13  N   -0.332947
    14  H    0.292865
 Sum of Mulliken charges =   1.00000

 Dipole moment (field-independent basis, Debye):
    X=              0.0000    Y=              0.0001    Z=              0.8683  Tot=              0.8683
 Quadrupole moment (field-independent basis, Debye-Ang):
   XX=            -19.4442   YY=            -19.4460   ZZ=            -21.8839
   XY=             -0.0001   XZ=              0.0000   YZ=             -0.0002

 Normal termination of Gaussian 09 at Tue Mar 15 13:50:25 2016.
