 Gaussian 09, Revision D.01,
 Gaussian 09:  EM64M-G09RevD.01 24-Apr-2013

 ---------------------------------------
 # MP2/6-31+G(d,p) Geom=Check Pop=CHelpG
 ---------------------------------------

 --------------
 Methane ChelpG
 --------------
 Structure from the checkpoint file:  "methane_chelpg.chk"
 Charge =  0 Multiplicity = 1

                         Standard orientation:
 ---------------------------------------------------------------------
 Center     Atomic      Atomic             Coordinates (Angstroms)
 Number     Number       Type             X           Y           Z
 ---------------------------------------------------------------------
      1          6           0        0.000000    0.000000    0.000000
      2          1           0        0.627509    0.627509    0.627509
      3          1           0       -0.627509   -0.627509    0.627509
      4          1           0       -0.627509    0.627509   -0.627509
      5          1           0        0.627509   -0.627509   -0.627509
 ---------------------------------------------------------------------

 SCF Done:  E(RHF) =  -40.2021062792     A.U. after    8 cycles
 E2 =    -0.1638458197D+00 EUMP2 =    -0.40365952098817D+02

 The electronic state is 1-A1.
 Alpha  occ. eigenvalues --  -11.20937  -0.94526  -0.54568  -0.54568  -0.54568
 Alpha virt. eigenvalues --    0.09246   0.12224   0.12224   0.12224   0.33366
 Alpha virt. eigenvalues --    0.33366   0.33366   0.41646   0.84906   0.84906
 Alpha virt. eigenvalues --    0.84906   1.17194   1.17194   1.17194   1.31234

 Mulliken charges:
               1
     1  C   -0.522779
     2  H    0.130695
     3  H    0.130695
     4  H    0.130695
     5  H    0.130695
 Sum of Mulliken charges =   0.00000

 Dipole moment (field-independent basis, Debye):
    X=              0.0000    Y=              0.0000    Z=              0.0000  Tot=              0.0000
 Quadrupole moment (field-independent basis, Debye-Ang):
   XX=             -8.4681   YY=             -8.4681   ZZ=             -8.4681
   XY=              0.0000   XZ=              0.0000   YZ=              0.0000

 ESP charges:
               1
     1  C   -0.349358
     2  H    0.087340
     3  H    0.087340
     4  H    0.087340
     5  H    0.087340
 Sum of ESP charges =   0.00000

 Normal termination of Gaussian 09 at Mon Dec 14 12:40:48 2015.
