 Gaussian 09, Revision D.01,
 Gaussian 09:  EM64M-G09RevD.01 24-Apr-2013

 --------------------------
 # MP2/6-31+G(d,p) Opt Freq
 --------------------------

 -------
 Methane
 -------
 Symbolic Z-matrix:
 Charge =  0 Multiplicity = 1

 SCF Done:  E(RHF) =  -40.2015926964     A.U. after    8 cycles
 E2 =    -0.1636395592D+00 EUMP2 =    -0.40365232255617D+02
 SCF Done:  E(RHF) =  -40.2021062792     A.U. after    7 cycles
 E2 =    -0.1638458194D+00 EUMP2 =    -0.40365952098593D+02
 Optimization completed.
    -- Stationary point found.
 Normal termination of Gaussian 09 at Mon Dec 14 12:37:06 2015.

 ----------------------------------------------------------------------
 #N Geom=AllCheck Guess=TCheck SCRF=Check GenChk RMP2(FC)/6-31+G(d,p) F
 req
 ----------------------------------------------------------------------

 Structure from the checkpoint file:  "methane.chk"
 -------
 Methane
 -------
 Charge =  0 Multiplicity = 1

                         Standard orientation:
 ---------------------------------------------------------------------
 Center     Atomic      Atomic             Coordinates (Angstroms)
 Number     Number       Type             X           Y           Z
 ---------------------------------------------------------------------
      1          6           0        0.000000    0.000000    0.000000
      2          1           0        0.627509    0.627509    0.627509
      3          1           0       -0.627509   -0.627509    0.627509
      4          1           0       -0.627509    0.627509   -0.627509
      5          1           0        0.627509   -0.627509   -0.627509
 ---------------------------------------------------------------------

 SCF Done:  E(RHF) =  -40.2021062792     A.U. after    1 cycles
 E2 =    -0.1638458195D+00 EUMP2 =    -0.40365952098672D+02
 E2 =    -0.1638458195D+00 EUMP2 =    -0.40365952098672D+02

 The electronic state is 1-A1.
 Alpha  occ. eigenvalues --  -11.20937  -0.94526  -0.54568  -0.54568  -0.54568
 Alpha virt. eigenvalues --    0.09246   0.12224   0.12224   0.12224   0.33366
 Alpha virt. eigenvalues --    0.33366   0.33366   0.41646   0.84906   0.84906
 Alpha virt. eigenvalues --    0.84906   1.17194   1.17194   1.17194   1.31234

 Mulliken charges:
               1
     1  C   -0.522779
     2  H    0.130695
     3  H    0.130695
     4  H    0.130695
     5  H    0.130695
 Sum of Mulliken charges =   0.00000

 Dipole moment (field-independent basis, Debye):
    X=              0.0000    Y=              0.0000    Z=              0.0000  Tot=              0.0000
 Quadrupole moment (field-independent basis, Debye-Ang):
   XX=             -8.4681   YY=             -8.4681   ZZ=             -8.4681
   XY=              0.0000   XZ=              0.0000   YZ=              0.0000

  Exact polarizability:  13.116   0.000  13.116   0.000   0.000  13.116
 Approx polarizability:  10.427   0.000  10.427   0.000   0.000  10.427

                      1                      2                      3
                     T2                     T2                     T2
 Frequencies --   1396.2570              1396.2570              1396.2570
 Red. masses --      1.1785                 1.1785                 1.1785
 Frc consts  --      1.3537                 1.3537                 1.3537
 IR Inten    --     14.5478                14.5478                14.5478

                      4                      5                      6
                      E                      E                     A1
 Frequencies --   1600.1199              1600.1199              3114.5964
 Red. masses --      1.0078                 1.0078                 1.0078
 Frc consts  --      1.5203                 1.5203                 5.7602
 IR Inten    --      0.0000                 0.0000                 0.0000

                      7                      8                      9
                     T2                     T2                     T2
 Frequencies --   3258.8512              3258.8512              3258.8512
 Red. masses --      1.1020                 1.1020                 1.1020
 Frc consts  --      6.8956                 6.8956                 6.8956
 IR Inten    --     21.9918                21.9918                21.9918

 - Thermochemistry -
 -------------------
 Temperature   298.150 Kelvin.  Pressure   1.00000 Atm.
 Atom     1 has atomic number  6 and mass  12.00000

 Molecular mass:    16.03130 amu.
 Principal axes and moments of inertia in atomic units:
                           1         2         3
     Eigenvalues --    11.33739  11.33739  11.33739
           X           -0.26045   0.96549   0.00000
           Y            0.96549   0.26045   0.00000
           Z            0.00000   0.00000   1.00000
 This molecule is a spherical top.
 Rotational symmetry number 12.
 Rotational temperatures (Kelvin)      7.63966     7.63966     7.63966
 Rotational constants (GHZ):         159.18484   159.18484   159.18484
 Zero-point vibrational energy     121302.3 (Joules/Mol)
                                   28.99195 (Kcal/Mol)
 Vibrational temperatures:   2008.90  2008.90  2008.90  2302.21  2302.21
          (Kelvin)           4481.20  4688.75  4688.75  4688.75

 Zero-point correction=                           0.046202 (Hartree/Particle)
 Thermal correction to Energy=                    0.049063
 Thermal correction to Enthalpy=                  0.050007
 Thermal correction to Gibbs Free Energy=         0.028895
 Sum of electronic and zero-point Energies=            -40.319750
 Sum of electronic and thermal Energies=               -40.316889
 Sum of electronic and thermal Enthalpies=             -40.315945
 Sum of electronic and thermal Free Energies=          -40.337057

                     E (Thermal)             CV                S
                      KCal/Mol        Cal/Mol-Kelvin    Cal/Mol-Kelvin
 Total                   30.788              6.389             44.434
 Electronic               0.000              0.000              0.000
 Translational            0.889              2.981             34.261
 Rotational               0.889              2.981             10.103
 Vibrational             29.010              0.427              0.070

 Optimization completed.
    -- Stationary point found.
 Normal termination of Gaussian 09 at Mon Dec 14 12:37:10 2015.
